<?xml version="1.0"?>
<VTKFile type="UnstructuredGrid" version="2.2">
  <UnstructuredGrid>
    <Piece NumberOfPoints="79" NumberOfCells="124">
      <Points>
        <DataArray type="Float64" NumberOfComponents="3" format="ascii">4.272097022732447 -2.59791975017716 0 2.927683314738855 -2.381847043967092 0 3.41276571609328 -3.654179821390611 0 2.391162759346684 -3.310972541309352 0 3.688446564567631 -1.769935602654357 0 2.300325188655778 -4.439426092011868 0 1.888524858706602 -2.42455788553813 0 4.814586436738996 -1.348983855785118 0 2.639503261061458 -1.429920876616919 0 1.426514718538903 -3.654851863639058 0 3.602967651250365 -0.7713332499761492 0 1.017280065263188 -4.89542043841161 0 1.548382547125787 -1.43125651368159 0 0.8407817602593013 -2.579897482270863 0 4.999999999999999 -1.011522195583512e-16 0 2.311203777685909 -0.231384349107449 0 0.2575599676831325 -3.765393444953943 0 -0.3412120668233302 -4.988343845952698 0 3.684118064200024 0.4732125374576321 0 -0.8238501694698949 -3.948884486122058 0 -1.674398060854907 -4.711304610594111 0 -1.735584755011395 -3.377892260976879 0 -2.883401610574311 -4.084849465052228 0 0.8962395259014934 -0.2675634491640636 0 0.1885206784857003 -1.451702196810307 0 -0.5990034360730552 -2.698060994289967 0 4.814586436738995 1.348983855785123 0 2.741577315349372 1.162243284151839 0 -2.747432834254882 -3.034007793854456 0 1.506576407856402 0.9120360692576854 0 3.736420545766128 1.575685666863404 0 -3.878556453522081 -3.155439721630287 0 -1.896822066500326 -2.293937510893931 0 0.2202403480384582 0.9141098630386854 0 -0.4660855043518516 -0.2584500414929066 0 -1.152190986222425 -1.393154186866818 0 4.27209702273244 2.597919750177172 0 3.077722390569951 2.311003965527744 0 2.087421956397889 1.940373344303264 0 -3.198302435229875 -2.124653316642357 0 1.011069262322373 2.262048318581154 0 -4.586056507527255 -1.99200544923123 0 -2.448858225858234 -1.208255459796911 0 -1.133451168230713 0.9105571352781338 0 -0.4485382642860786 2.047561387977464 0 -1.760467176581495 -0.2298484870163549 0 3.412765716093265 3.654179821390625 0 2.188868643695946 3.062203509731162 0 -3.718970515669234 -1.07684322609035 0 0.1615390538242226 3.093171742279288 0 1.160166481942026 3.645624340842013 0 -4.95342973018165 -0.6808332454812583 0 -3.034040617298624 -0.1488902143639848 0 -2.457427493371882 0.8885189167972312 0 -1.835259325056913 1.925194287632272 0 -1.173728891956004 2.888414029060657 0 2.300325188655751 4.43942609201188 0 -4.074026156201265 -0.07371901592301933 0 0.2704251987116771 4.114474047604683 0 -0.7458532390887972 3.888753333648173 0 1.017280065263156 4.895420438411617 0 -4.953429730181656 0.6808332454812112 0 -3.71026018767516 0.8571383608392857 0 -3.224742844993645 1.961009565483385 0 -2.464413683155531 2.930396917977938 0 -1.794067565893857 3.676417396050198 0 -0.3412120668233698 4.988343845952694 0 -1.674398060854948 4.711304610594096 0 -4.586056507527275 1.992005449231187 0 -3.878556453522113 3.155439721630246 0 -2.883401610574353 4.084849465052198 0 0.25 -1.085009141516032e-17 0 -3.811415216064201e-16 -1.236082729651025e-17 0 0.1558724504646823 -0.1954578706170083 0 0.1558724504646834 0.1954578706170074 0 -0.05563023348907974 -0.2437319780454557 0 -0.05563023348907863 0.2437319780454559 0 -0.2252422169756051 -0.1084709347793889 0 -0.2252422169756048 0.1084709347793896 0 </DataArray>
      </Points>
      <Cells>
        <DataArray type="Int32" Name="connectivity" format="ascii">0 1 2 1 3 2 0 4 1 2 3 5 1 6 3 7 4 0 1 4 8 5 3 9 8 6 1 3 6 9 10 4 7 8 4 10 5 9 11 12 6 8 9 6 13 14 10 7 15 8 10 11 9 16 11 16 17 12 8 15 13 6 12 9 13 16 18 10 14 15 10 18 16 19 17 17 19 20 20 21 22 23 12 15 13 12 24 13 25 16 26 18 14 18 27 15 25 19 16 20 19 21 21 28 22 23 15 29 24 12 23 13 24 25 26 30 18 18 30 27 15 27 29 21 19 25 22 28 31 32 28 21 23 29 33 24 23 34 24 35 25 36 30 26 27 30 37 29 27 38 25 32 21 31 28 39 39 28 32 23 33 34 29 40 33 24 34 35 35 32 25 37 30 36 38 27 37 29 38 40 31 39 41 39 32 42 33 43 34 40 44 33 34 45 35 42 32 35 46 37 36 38 37 47 40 38 47 41 39 48 48 39 42 43 45 34 33 44 43 40 49 44 45 42 35 47 37 46 47 50 40 41 48 51 42 52 48 43 53 45 44 54 43 40 50 49 49 55 44 45 52 42 56 47 46 56 50 47 48 57 51 52 57 48 54 53 43 53 52 45 44 55 54 50 58 49 59 55 49 60 50 56 51 57 61 62 57 52 63 53 54 62 52 53 54 55 64 49 58 59 60 58 50 65 55 59 61 57 62 54 64 63 63 62 53 64 55 65 59 58 66 66 58 60 67 65 59 61 62 68 63 64 69 68 62 63 64 65 70 67 59 66 70 65 67 68 63 69 69 64 70 71 72 73 74 72 71 73 72 75 76 72 74 75 72 77 78 72 76 77 72 78 </DataArray>
        <DataArray type="Int32" Name="offsets" format="ascii">3 6 9 12 15 18 21 24 27 30 33 36 39 42 45 48 51 54 57 60 63 66 69 72 75 78 81 84 87 90 93 96 99 102 105 108 111 114 117 120 123 126 129 132 135 138 141 144 147 150 153 156 159 162 165 168 171 174 177 180 183 186 189 192 195 198 201 204 207 210 213 216 219 222 225 228 231 234 237 240 243 246 249 252 255 258 261 264 267 270 273 276 279 282 285 288 291 294 297 300 303 306 309 312 315 318 321 324 327 330 333 336 339 342 345 348 351 354 357 360 363 366 369 372 </DataArray>
        <DataArray type="Int8" Name="types" format="ascii">69 69 69 69 69 69 69 69 69 69 69 69 69 69 69 69 69 69 69 69 69 69 69 69 69 69 69 69 69 69 69 69 69 69 69 69 69 69 69 69 69 69 69 69 69 69 69 69 69 69 69 69 69 69 69 69 69 69 69 69 69 69 69 69 69 69 69 69 69 69 69 69 69 69 69 69 69 69 69 69 69 69 69 69 69 69 69 69 69 69 69 69 69 69 69 69 69 69 69 69 69 69 69 69 69 69 69 69 69 69 69 69 69 69 69 69 69 69 69 69 69 69 69 69 </DataArray>
      </Cells>
      <CellData>
        <DataArray type="UInt8" Name="vtkGhostType" format="ascii" RangeMin="0" RangeMax="1">0 0 0 0 0 0 0 0 0 0 0 0 0 0 0 0 0 0 0 0 0 0 0 0 0 0 0 0 0 0 0 0 0 0 0 0 0 0 0 0 0 0 0 0 0 0 0 0 0 0 0 0 0 0 0 0 0 0 0 0 0 0 0 0 0 0 0 0 0 0 0 0 0 0 0 0 0 0 0 0 0 0 0 0 0 0 0 0 0 0 0 0 0 0 0 0 0 0 0 0 0 0 0 0 0 0 0 0 0 0 0 0 0 0 0 0 0 0 0 0 0 0 0 0 </DataArray>
        <DataArray type="Int64" IdType="1" Name="vtkOriginalCellIds" format="ascii" RangeMin="0" RangeMax="123">0 1 2 3 4 5 6 7 8 9 10 11 12 13 14 15 16 17 18 19 20 21 22 23 24 25 26 27 28 29 30 31 32 33 34 35 36 37 38 39 40 41 42 43 44 45 46 47 48 49 50 51 52 53 54 55 56 57 58 59 60 61 62 63 64 65 66 67 68 69 70 71 72 73 74 75 76 77 78 79 80 81 82 83 84 85 86 87 88 89 90 91 92 93 94 95 96 97 98 99 100 101 102 103 104 105 106 107 108 109 110 111 112 113 114 115 116 117 118 119 120 121 122 123 </DataArray>
      </CellData>
      <PointData Scalars="f">
        <DataArray type="Int64" IdType="1" Name="vtkOriginalPointIds" format="ascii" RangeMin="0" RangeMax="78">0 1 2 3 4 5 6 7 8 9 10 11 12 13 14 15 16 17 18 19 20 21 22 23 24 25 26 27 28 29 30 31 32 33 34 35 36 37 38 39 40 41 42 43 44 45 46 47 48 49 50 51 52 53 54 55 56 57 58 59 60 61 62 63 64 65 66 67 68 69 70 71 72 73 74 75 76 77 78 </DataArray>
        <DataArray type="UInt8" Name="vtkGhostType" format="ascii" RangeMin="0" RangeMax="0">0 0 0 0 0 0 0 0 0 0 0 0 0 0 0 0 0 0 0 0 0 0 0 0 0 0 0 0 0 0 0 0 0 0 0 0 0 0 0 0 0 0 0 0 0 0 0 0 0 0 0 0 0 0 0 0 0 0 0 0 0 0 0 0 0 0 0 0 0 0 0 0 0 0 0 0 0 0 0 </DataArray>
        <DataArray type="Float64" Name="f" format="ascii">9.999998110265219 9.999975735894955 9.999998110265219 9.999973991479481 9.999982459215998 9.999998110265219 9.999963728152007 9.999998110265219 9.999958892819732 9.999981849280474 9.99998470740106 9.999998110265219 9.999937850234277 9.999965275943998 9.999998110265219 9.99996112480901 9.999994157508054 9.999998110265219 9.99998575858136 10.00000532320395 9.999998110265219 10.00001349056334 9.999998110265219 9.99996152808362 9.999968954332488 10.00002952260318 9.999998110265219 9.999990286658505 10.00002149811002 10.00001342336441 9.999989884097218 9.999998110265219 10.00002274964043 10.00001228153331 9.99998081167775 10.00002622829795 9.999998110265219 9.999983881158144 9.999987397636859 10.0000255251635 9.999990918568839 9.999998110265219 10.00002397006413 10.0000290060648 10.00003521413781 10.00002329525982 9.999998110265219 9.999967875800667 10.00002170679449 10.00002224221295 9.999994210622447 9.999998110265219 10.00002421145562 10.00003444330082 10.00004037629515 10.00002870045285 9.999998110265219 10.00002782563004 10.00000297979938 10.00001423751737 9.999998110265219 9.999998110265219 10.00000785872421 10.00001403533111 10.00002828358789 10.00001420594534 9.999998110265219 9.999998110265219 9.999998110265219 9.999998110265219 9.999998110265219 0 0 0 0 0 0 0 0 </DataArray>
      </PointData>
    </Piece>
  </UnstructuredGrid>
</VTKFile>
